# vtk DataFile Version 3.0
vtk output
ASCII
DATASET RECTILINEAR_GRID
DIMENSIONS 10 10 1
X_COORDINATES 10 float
0.000000
0.111111
0.222222
0.333333
0.444444
0.555556
0.666667
0.777778
0.888889
1.000000
Y_COORDINATES 10 float
0.000000
0.111111
0.222222
0.333333
0.444444
0.555556
0.666667
0.777778
0.888889
1.000000
Z_COORDINATES 1 float
0
POINT_DATA 100
SCALARS phi float 1
LOOKUP_TABLE default

SCALARS u float 1
LOOKUP_TABLE default

SCALARS v float 1
LOOKUP_TABLE default

SCALARS curvature float 1
LOOKUP_TABLE default
***Start for 0 ***
0.000000
0.000000
0.000000
0.000000
0.000000
0.000000
0.000000
0.000000
0.000000
0.000000
0.000000
0.000000
0.000000
0.000000
0.000000
0.000000
0.000000
0.000000
0.000000
0.000000
***End for 0 ***
.403468
0.298764
0.198055
0.106098
0.036339
0.018966
0.066951
0.114937
***End for 1 ***
***Start for 2 ***
0.601906
0.491300
0.380694
0.27***Start for 1 ***
0.000000
0.265584
0.406899
0.357821
0.141314
-0.141314
-0.357821
-0.406899
-0.265584
-0.000000
0.000000
0.482091
0.738606
0.649519
0.256515
-0.256515
-0.649519
-0.738606
-0.482091
-0.000000
***End for 1 ***

0.198055
0.106098
0.036339
0.018966
0.066951
0.11***Start for 1 ***
-0.000000
-0.115201
-0.406899
-0.738606
-0.955112
-0.955112
-0.738606
-0.406899
-0.115201
-0.000000
-0.000000
-0.101306
-0.357821
-0.649519
-0.839912
-0.839912
-0.649519
-0.357821
-0.101306
-0.000000
***End for 1 ***
707
-0.839912
-0.955112
-0.6***Start for 1 ***
0.000000
0.000000
0.000000
0.000000
0.000000
0.000000
0.000000
0.000000
0.000000
0.000000
0.000000
0.000000
0.000000
0.000000
0.000000
0.000000
0.000000
0.000000
0.000000
0.000000
***End for 1 ***
9
-0.141314
-0.256515
-0.331707
-0.331707
-0.25651***Start***
0.000000
0.482091
0.738606
0.6***Start for 3 ***
0.000000
0.482091
0.738***Start for 3 ***
0.000000
0.482091
0.738606
0.649519
0.256515
***Start for 2 ***
-0.000000
-0.040009
-0.141314
-0.256515
-0.331707
-0.331707
-0.256515
-0.141314
-0.040009
-0.000000
0.000000
0.040009
0.141314
0.256515
0.331707
0.331707
0.256515
0.141314
0.040009
0.000000
***End for 2 ***
0
0.000000
0.000000
0.000000
0.000000
0.***Start***
0.000000
0.075192
0.115201
0.101306
0.040009***Start for 4 ***
0.000000
0.075192
0.115201
0.101306
0***Start for 4 ***
0.000000
0.075192
0.115201
0.101306
0.040009
-0.040009
-0.101306
-0.115201
-0.07519***Start for 2 ***
0.000000
0.000000
0.000000
0.000000
0.000000
0.000000
0.000000
0.000000
0.000000
0.000000
0.000000
0.000000
0.000000
0.000000
0.000000
0.000000
0.000000
0.000000
0.000000
0.000000
***End for 2 ***
00000
0.101306
0.357821
0.649519
0.839912
0.839912
0.649519
0.357821
0.101306
0.000000
0.000000
0.115201
0.406899
0.738606
0.955112
0.955112
0.738606
0.406899
0.115201
0.000000
***End for 3 ***
000
0.00000.000000
0.075192
0.265584
0.482091
0.0.000000
0.000000
0.000000
0.000000
0.000000
0.000000
0.000000
0.000000
0.000000
0.000000
0.000000
0.000000
0.000000
0.000000
0.000000
0.000000
0.000000
0.000000
0.000000
0.000000

0.075192
0.000000
0.000000
0.000000
0.000000
***Start***
0.000000
0.075192
0.265584***Start***
0.000000
0.000000
0.000000
0.00000***Start for 4 ***
0.000000
0.075192
0***Start for 3 ***
0.000000
0.000000
0.000000
***Start for 4 ***
0.000000
0.075192
0***Start for 3 ***
0.000000
0.000000
0.000000
0.000000
0.000000
0.000000
0.000000
0.000000
0.000000
0.000000
0.000000
0.000000
0.000000
0.000000
0.000000
0.000000
0.000000
0.000000
0.000000
0.000000
***End for 3 ***

0.000000.000000
0.000000
0.000000
0
0.000000
0.000000
0.000000
0.000000
0.000000
0.000000
0.000000
0.000000
0.000000
0.000000
0.000000
0.000000
0.000000
0.000000
0.000000
0.000000
0.000000
0.000000
0.000000
0.000000
0.000000
0.000000
0.000000
0.000000
0.000000
0.000000
0.000000
0.000000
0.000000
00.000000
0.000000
.000000
0.000000
0.000000
0.000000
0.000000
0.000000
0.00.000000
0.000000
00000
0.000000
0.000000
0.000000
0.000000
0***Start***
0.000000
0.000000
0.000000
0.000000
0.000000
0.000000
0.000000
0.000000
0.000000
0.000000
0.000000
0***Start for 4 ***
0.000000
0.000000
0.000000
0.000000
0.000000
0.000000
0.000000
0.000000
0.000000
0.000000
0.0***Start for 4 ***
0.000000
0.000000
0.000000
0.000000
0.000000
0.000000
0.000000
0.000000
0.000000
0.000000
0.000000
0.000000
0.000000
0.000000
0.000000
0.000000
0.000000
0.000000
0.000000
0.000000
***End for 4 ***
0.000000
0.000000
0.000000
0.000000
0.000000
0.000000
0.000000
0.000000
0.000000
0.000000
0.000000
0.000000
0.000000
0.000000
0.000000
0.000000
0.000000
0.000000
0.000000
0.000000
0.000000
0.000000
0.000000
0.000000
0.000000
0.000000
0.000000
0.000000
0.000000
0.000000
0.000000
0.000000
0.000000
0.000000
0.000000
0.000000
0.000000
0.000000
0.000000
0.000000
-0.122775
-0.121282
-0.119556
-0.117603
-0.115432
-0.113050
-0.110469
-0.107697
-0.104746
-0.101629
-0.098357
-0.094944
-0.091404
-0.087750
-0.083998
-0.080163
-0.076260
-0.072304
-0.068312
-0.064300
-0.060284
-0.056281
-0.052305
1
0.587188
0.579431
0.571732
0.564093
0.556516
0.549002
0.541555
0.534176
0.526867
0.519630
0.512469
0.505385
0.498380
0.491459
0.484623
0.477874
0.471217
0.464654
0.458188
0.451821
0.445558
0.439402
0.433355
0.427422
0.421606
0.415910
0.410339
0.404895
0.399583
0.394407
0.389371
0.384477
0.379732
0.375137
0.370698
0.366419
0.362303
0.358354
0.354577
0.350975
0.347552
0.344311
0.341257
0.338393
0.335722
0.333248
0.330973
0.328900
0.327032
0.325372
0.323921
0.322681
0.321655
0.320843
0.320247
0.319867
0.319704
0.319758
0.320029
0.320518
0.321222
0.322141
0.323274
0.324620
0.326176
0.327940
0.329911
0.332085
0.334460
0.337033
0.339801
0.342761
0.345908
0.349241
0.352754
0.356444
0.360307
0.364340
0.368538
0.372898
0.377415
0.381932
0.729586
0.721022
0.712458
0.703927
0.695432
0.686972
0.678548
0.670163
0.661817
0.653511
0.645246
0.637024
0.628847
0.620715
0.612630
0.604594
0.596608
0.588674
0.580793
0.572968
0.565199
0.557490
0.549841
0.542256
0.534735
0.527281
0.519897
0.512584
0.505346
0.498184
0.491101
0.484100
0.477183
0.470354
0.463616
0.456970
0.450421
0.443971
0.437625
0.431384
0.425253
0.419236
0.413335
0.407555
0.401899
0.396372
0.390976
0.385717
0.380598
0.375623
0.370796
0.366122
0.361605
0.357249
0.353058
0.349036
0.345188
0.341517
0.338028
0.334724
0.331609
0.328687
0.325962
0.323436
0.321114
0.318997
0.317090
0.315394
0.313912
0.312645
0.311597
0.310767
0.310158
0.309769
0.309603
0.309658
0.309936
0.310435
0.311154
0.312094
0.313251
0.314626
0.316215
0.318017
0.320029
0.322249
0.324674
0.327299
0.330123
0.333142
0.336352
0.339749
0.343330
0.347090
0.351026
0.355133
0.359407
0.363844
0.368440
0.373036
0.724351
0.715735
0.707118
0.698534
0.689983
0.681468
0.672988
0.664546
0.656141
0.647776
0.639451
0.631169
0.622929
0.614735
0.606586
0.598485
0.590433
0.582432
0.574483
0.566589
0.558751
0.550970
0.543250
0.535591
0.527996
0.520468
0.513007
0.505618
0.498302
0.491061
0.483899
0.476817
0.469820
0.462908
0.456087
0.449358
0.442725
0.436190
0.429759
0.423433
0.417216
0.411112
0.405125
0.399258
0.393516
0.387902
0.382421
0.377077
0.371873
0.366814
0.361904
0.357148
0.352551
0.348115
0.343847
0.339749
0.335827
0.332085
0.328527
0.325157
0.321979
0.318997
0.316215
0.313637
0.311265
0.309103
0.307154
0.305421
0.303907
0.302612
0.301540
0.300692
0.300069
0.299672
0.29-0.003909
-0.003841
-0.003758
-0.003659
-0.003546
-0.003418
-0.003277
-0.003122
-0.002955
-0.002776
-0.002586
-0.002385
-0.002175
-0.001956
-0.001729
-0.001495
-0.001255
-0.001010
-0.000761
-0.000509
-0.000255
0.000000
0.000000
0.000573
0.001144
0.001710
0.002269
0.002819
0.003358
0.003883
0.004393
0.004885
0.005357
0.005808
0.006235
0.006638
0.007013
0.007360
0.007678
0.007965
0.008219
0.008441
0.008628
0.008781
0.008898
0.008980
0.009025
0.009035
0.009007
0.008944
0.008844
0.008709
0.008539
0.008334
0.008096
0.007825
0.007523
0.007190
0.006829
0.006440
0.006025
0.005585
0.005124
0.004641
0.004140
0.003623
0.003090
0.002546
0.001991
0.001428
0.000859
0.000287
-0.000287
-0.000859
-0.001428
-0.001991
-0.002546
-0.003090
-0.003623
-0.004140
-0.004641
-0.005124
-0.005585
-0.006025
-0.006440
-0.006829
-0.007190
-0.007523
-0.007825
-0.008096
-0.008334
-0.008539
-0.008709
-0.008844
-0.008944
-0.009007
-0.009035
-0.009025
-0.008980
-0.008898
-0.008781
-0.008628
-0.008441
-0.008219
-0.007965
-0.007678
-0.007360
-0.007013
-0.006638
-0.006235
-0.005808
-0.005357
-0.004885
-0.004393
-0.003883
-0.003358
-0.002819
-0.002269
-0.001710
-0.001144
-0.000573
0.000000
0.000000
0.001016
0.002029
0.003033
0.004025
0.005001
0.005956
0.006888
0.007792
0.008664
0.009502
0.010301
0.011059
0.011772
0.012438
0.013054
0.013617
0.014126
0.014577
0.014970
0.015303
0.015574
0.015782
0.015927
0.016007
0.016024
0.015975
0.015863
0.015686
0.015446
0.015144
0.014781
0.014359
0.013879
0.013342
0.012753
0.012111
0.011421
0.010685
0.009906
0.009088
0.008232
0.007343
0.006425
0.005481
0.004515
0.003531
0.002532
0.001523
0.000508
-0.000508
-0.001523
-0.002532
-0.003531
-0.004515
-0.005481
-0.006425
-0.007343
-0.008232
-0.009088
-0.009906
-0.010685
-0.011421
-0.012111
-0.012753
-0.013342
-0.013879
-0.014359
-0.014781
-0.015144
-0.015446
-0.015686
-0.015863
-0.015975
-0.016024
-0.016007
-0.015927
-0.015782
-0.015574
-0.015303
-0.014970
-0.014577
-0.014126
-0.013617
-0.013054
-0.012438
-0.011772
-0.011059
-0.010301
-0.009502
-0.008664
-0.007792
-0.006888
-0.005956
-0.005001
-0.004025
-0.003033
-0.002029
-0.001016
0.000000
0.000000
0.001583
0.003160
0.004725
0.006270
0.007790
0.009278
0.010730
0.012138
0.013497
0.014802
0.016047
0.017227
0.018339
0.019376
0.020335
0.021213
0.022005
0.022708
0.023320
0.023839
0.024261
0.024585
0.024811
0.024936
0.024961
0.024886
0.024710
0.024435
0.024062
0.023591
0.023026
0.022368
0.021620
0.020785
0.019866
0.018867
0.017792
0.016646
0.015432
0.014156
0.012824
0.011439
0.010009
0.008538
0.007033
0.005500
0.003944
0.002373
0.000792
-0.000792
-0.002373
-0.003944
-0.005500
-0.007033
-0.008538
77395
0.275541
0.273919
0.272533
0.271384
0.270475
0.269808
0.269382
0.269200
0.269260
0.269564
0.270111
0.270900
0.271929
0.273196
0.274701
0.276439
0.278408
0.280606
0.283027
0.285670
0.28853-0.048374
-0.044502
-0.040707
-0.037002
-0.033403
-0.029925
-0.026581
-0.023385
-0.020349
-0.017487
-0.014809
-0.012326
-0.010048
-0.007985
-0.006144
-0.004534
-0.003160
-0.002029
-0.001144
-0.000509
-0.000127
-0.000000
-0.000000
-0.000191
-0.000761
-0.001710
-0.003033
-0.004725
-0.006778
-0.009186
-0.011937
-0.015021
-0.018426
-0.022138
-0.026142
-0.030421
-0.034959
-0.039737
-0.044737
-0.049937
-0.055317
-0.060855
-0.066529
-0.072317
-0.078194
-0.084137
-0.090123
-0.096127
-0.102125
-0.108092
-0.114006
-0.119841
-0.125575
-0.131184
-0.136646
-0.141938
-0.147041
-0.151932
-0.156592
-0.161003
-0.165147
-0.169006
-0.172567
-0.175813
-0.178732
-0.181313
-0.183545
-0.185418
-0.186926
-0.188063
-0.188823
-0.189204
-0.189204
-0.188823
-0.188063
-0.186926
-0.185418
-0.183545
-0.181313
-0.178732
-0.175813
-0.172567
-0.169006
-0.165147
-0.161003
-0.156592
-0.151932
-0.147041
-0.141938
-0.136646
-0.131184
-0.125575
-0.119841
-0.114006
-0.108092
-0.102125
-0.096127
-0.090123
-0.084137
-0.078194
-0.072317
-0.066529
-0.060855
-0.055317
-0.049937
-0.044737
-0.039737
-0.034959
-0.030421
-0.026142
-0.022138
-0.018426
-0.015021
-0.011937
-0.009186
-0.006778
-0.004725
-0.003033
-0.001710
-0.000761
-0.000191
-0.000000
-0.000000
-0.000253
-0.001010
-0.002269
-0.004025
-0.006270
-0.008995
-0.012190
-0.015841
-0.019934
-0.024453
-0.029379
-0.034692
-0.040371
-0.046393
-0.052734
-0.059368
-0.066269
-0.073409
-0.080758
-0.088289
-0.095969
-0.103768
-0.111656
-0.119599
-0.127566
-0.135526
-0.143445
-0.151292
-0.159036
-0.166645
-0.174089
-0.181337
-0.188361
-0.195132
-0.201623
-0.207807
-0.213661
-0.219160
-0.224282
-0.229006
-0.233314
-0.237189
-0.240613
-0.243575
-0.246061
-0.248063
-0.249571
-0.250579
-0.251085
-0.251085
-0.250579
-0.249571
-0.248063
-0.246061
-0.243575
-0.240613
-0.237189
-0.233314
-0.229006
-0.224282
-0.219160
-0.213661
-0.207807
-0.201623
-0.195132
-0.188361
-0.181337
-0.174089
-0.166645
-0.159036
-0.151292
-0.143445
-0.135526
-0.127566
-0.119599
-0.111656
-0.103768
-0.095969
-0.088289
-0.080758
-0.073409
-0.066269
-0.059368
-0.052734
-0.046393
-0.040371
-0.034692
-0.029379
-0.024453
-0.019934
-0.015841
-0.012190
-0.008995
-0.006270
-0.004025
-0.002269
-0.001010
-0.000253
-0.000000
-0.000000
-0.000314
-0.001255
-0.002819
-0.005001
-0.007790
-0.011176
-0.015145
-0.019682
-0.024767
-0.030381
-0.036501
-0.043102
-0.050158
-0.057640
-0.065518
-0.073761
-0.082335
-0.091205
-0.100337
-0.109692
-0.119234
-0.128925
-0.138724
-0.148593
-0.158492
-0.168381
-0.178220
-0.187970
-0.197591
-0.207045
-0.216293
-0.225299
0.000000
0.000000
0.000000
0.000000
0.000000
0.000000
0.000000
0.000000
0.000000
0.000000
0.000000
0.000000
0.000000
0.000000
0.000000
0.000000
0.000000
0.000000
0.000000
0.000000
0.000000
0.000000
0.000000
0.000000
0.000000
0.000000
0.000000
0.000000
0.000000
0.000000
0.000000
0.000000
0.000000
0.000000
0.000000
0.000000
0.000000
0.000000
0.000000
0.000000
0.000000
0.000000
0.000000
0.000000
0.000000
0.000000
0.000000
0.000000
0.000000
0.000000
0.000000
0.000000
0.000000
0.000000
0.000000
0.000000
0.000000
0.000000
0.000000
0.000000
0.000000
0.000000
0.000000
0.000000
0.000000
0.000000
0.000000
0.000000
0.000000
0.000000
0.000000
0.000000
0.000000
0.000000
0.000000
0.000000
0.000000
0.000000
0.000000
0.000000
0.000000
0.000000
0.000000
0.000000
0.000000
0.000000
0.000000
0.000000
0.000000
0.000000
0.000000
0.000000
0.000000
0.000000
0.000000
0.000000
0.000000
0.000000
0.000000
0.000000
0.000000
0.000000
0.000000
0.000000
0.000000
0.000000
0.000000
0.000000
0.000000
0.000000
0.000000
0.000000
0.000000
0.000000
0.000000
0.000000
0.000000
0.000000
0.000000
0.000000
0.000000
0.000000
0.000000
0.000000
0.000000
0.000000
0.000000
0.000000
0.000000
0.000000
0.000000
0.000000
0.000000
0.000000
0.000000
0.000000
0.000000
0.000000
0.000000
0.000000
0.000000
0.000000
0.000000
0.000000
0.000000
0.000000
0.000000
0.000000
0.000000
0.000000
0.000000
0.000000
0.000000
0.000000
0.000000
0.000000
0.000000
0.000000
0.000000
0.000000
0.000000
0.000000
0.000000
0.000000
0.000000
0.000000
0.000000
0.000000
0.000000
0.000000
0.000000
0.000000
0.000000
0.000000
0.000000
0.000000
0.000000
0.000000
0.000000
0.000000
0.000000
0.000000
0.000000
0.000000
0.000000
0.000000
0.000000
0.000000
0.000000
0.000000
0.000000
0.000000
0.000000
0.000000
0.000000
0.000000
0.000000
0.000000
0.000000
0.000000
0.000000
0.000000
0.000000
0.000000
0.000000
0.000000
0.000000
0.000000
0.000000
0.000000
0.000000
0.000000
0.000000
0.000000
0.000000
0.000000
0.000000
0.000000
0.000000
0.000000
0.000000
0.000000
0.000000
0.000000
0.000000
0.000000
0.000000
0.000000
0.000000
0.000000
0.000000
0.000000
0.000000
0.000000
0.000000
0.000000
0.000000
0.000000
0.000000
0.000000
0.000000
0.000000
0.000000
0.000000
0.000000
0.000000
0.000000
0.000000
0.000000
0.000000
0.000000
0.000000
0.000000
0.000000
0.000000
0.000000
0.000000
0.000000
0.000000
0.000000
0.000000
0.000000
0.000000
0.000000
0.000000
0.000000
0.000000
0.000000
0.000000
0.000000
0.000000
0.000000
0.000000
0.000000
0.000000
0.000000
0.000000
0.000000
.290039
0.284263
0.278646
0.273196
0.267920
0.262823
0.257912
0.253195
0.248678
0.244368
0.240272
0.236397
0.232749
0.229335
0.226161
0.223234
0.220559
0.218142
0.215987
0.214101
0.212486
0.211146
0.210085
0.209305
0.208808
0.208595
0.208666
0.209021
0.209660
0.210581
0.211782
0.213259
0.215010
0.217031
0.219318
0.221864
0.224666
0.227717
0.231012
0.234544
0.238306
0.242293
0.246497
0.250911
0.255529
0.260344
0.265348
0.270536
0.275900
0.281434
0.286968
0.676985
0.667858
0.658732
0.649628
0.640549
0.631495
0.622467
0.613466
0.604493
0.595548
0.586634
0.577750
0.568899
0.560081
0.551298
0.542550
0.533840
0.525169
0.516538
0.507948
0.499402
0.490902
0.482448
0.474044
0.465691
0.457390
0.449145
0.440958
0.432830
0.424765
0.416766
0.408834
0.400974
0.393188
0.385479
0.377850
0.370306
0.362850
0.355486
0.348218
0.341050
0.333986
0.327032
0.320192
0.313472
0.306875
0.300409
0.294078
0.287889
0.281848
0.275960
0.270233
0.264672
0.259286
0.254080
0.249062
0.244239
0.239618
0.235207
0.231012
0.227041
0.223302
0.219801
0.216545
0.213540
0.210793
0.208310
0.206096
0.204157
0.202497
0.201119
0.200028
0.199225
0.198714
0.198494
0.198567
0.198933
0.199590
0.200537
0.201772
0.203292
0.205092
0.207169
0.209518
0.212134
0.215010
0.218142
0.221521
0.225142
0.228998
0.233082
0.237386
0.241903
0.246625
0.251547
0.256660
0.261957
0.267431
0.273076
0.278721
0.672781
0.663606
0.654431
0.645278
0.636149
0.627044
0.617963
0.608909
0.599881
0.590881
0.581909
0.572968
0.564057
0.555179
0.546334
0.537523
0.528748
0.520011
0.511312
0.502654
0.494038
0.485466
0.476939
0.468460
0.460030
0.451652
0.443327
0.435058
0.426847
0.418698
0.410612
0.402592
0.394641
0.386763
0.378961
0.371237
0.363596
0.356041
0.348576
0.341205
0.333934
0.326765
0.319704
0.312756
0.305925
0.299218
0.292640
0.286197
0.279894
0.273739
0.267737
0.261895
0.256220
0.250720
0.245402
0.240272
0.235339
0.230610
0.226093
0.221796
0.217726
0.213891
0.210298
0.206955
0.203869
0.201046
0.198494
0.196218
0.194223
0.192514
0.191096
0.189973
0.189146
0.188619
0.188393
0.188469
0.188845
0.189522
0.190497
0.191768
0.193332
0.195185
0.197321
0.199736
0.202424
0.205379
0.208595
0.212063
0.215778
0.219732
0.223916
0.228325
0.232949
0.237780
0.242813
0.248038
0.253448
0.259036
0.264795
0.270554
0.668679
0.659457
0.650234
0.641033
0.631854
0.622698
0.613566
0.604459
0.595377
0.586322
0.577295
0.568296
0.559326
0.550388
0.541481
0.532608
0.052515
0.050193
0.047669
0.044953
0.042057
0.038991
0.035767
0.032400
0.028903
0.025289
0.021573
0.017770
0.013896
0.009966
0.005996
0.002001
-0.002001
-0.005996
-0.009966
-0.013896
-0.017770
-0.021573
-0.025289
-0.028903
-0.032400
-0.035767
-0.038991
-0.042057
-0.044953
-0.047669
-0.050193
-0.052515
-0.054625
-0.056515
-0.058178
-0.059606
-0.060795
-0.061738
-0.062433
-0.062877
-0.063067
-0.063004
-0.062687
-0.062117
-0.061297
-0.060231
-0.058922
--0.298945
-0.294690
-0.289876
-0.284524
-0.278654
-0.272290
-0.265459
-0.258186
-0.250502
-0.242438
-0.234025
-0.225299
-0.216293
-0.207045
-0.197591
-0.187970
-0.178220
-0.168381
-0.158492
-0.148593
-0.138724
-0.128925
-0.119234
-0.109692
-0.100337
-0.091205
-0.082335
-0.073761
-0.065518
-0.057640
-0.050158
-0.043102
-0.036501
-0.030381
-0.024767
-0.019682
-0.015145
-0.011176
-0.007790
-0.005001
-0.002819
-0.001255
-0.000314
-0.000000
-0.000000
-0.000374
-0.001495
-0.003358
-0.005956
-0.009278
-0.013311
-0.018039
-0.023443
-0.029500
-0.036187
-0.043476
-0.051339
-0.059743
-0.068655
-0.078039
-0.087856
-0.098069
-0.108634
-0.119511
-0.130654
-0.142020
-0.153562
-0.165234
-0.176989
-0.188780
-0.200558
-0.212278
-0.223891
-0.235350
-0.246611
-0.257626
-0.268353
-0.278747
-0.288767
-0.298372
-0.307525
-0.316187
-0.324325
-0.331904
-0.338896
-0.345271
-0.351005
-0.356073
-0.360455
-0.364135
-0.367097
-0.369328
-0.370821
-0.371569
-0.371569
-0.370821
-0.369328
-0.367097
-0.364135
-0.360455
-0.356073
-0.351005
-0.345271
-0.338896
-0.331904
-0.324325
-0.316187
-0.307525
-0.298372
-0.288767
-0.278747
-0.268353
-0.257626
-0.246611
-0.235350
-0.223891
-0.212278
-0.200558
-0.188780
-0.176989
-0.165234
-0.153562
-0.142020
-0.130654
-0.119511
-0.108634
-0.098069
-0.087856
-0.078039
-0.068655
-0.059743
-0.051339
-0.043476
-0.036187
-0.029500
-0.023443
-0.018039
-0.013311
-0.009278
-0.005956
-0.003358
-0.001495
-0.000374
-0.000000
-0.000000
-0.000433
-0.001729
-0.003883
-0.006888
-0.010730
-0.015394
-0.020861
-0.027109
-0.034114
-0.041847
-0.050276
-0.059369
-0.069088
-0.079393
-0.090245
-0.101598
-0.113408
-0.125626
-0.138204
-0.151090
-0.164233
-0.177581
-0.191079
-0.204672
-0.218307
-0.231928
-0.245481
-0.258910
-0.272162
-0.285184
-0.297922
-0.310326
-0.322346
-0.333933
-0.345041
-0.355625
-0.365643
-0.375053
-0.383818
-0.391903
-0.399276
-0.405906
-0.411767
-0.416835
-0.421090
-0.424515
-0.427096
-0.428822
-0.429687
-0.429687
-0.428822
-0.427096
-0.424515
-0.421090
-0.416835
-0.411767
-0.405906
-0.399276
-0.391903
-0.383818
-0.375053
-0.365643
-0.355625
-0.345041
-0.333933
-0.322346
-0.310326
-0.297922
-0.285184
-0.272162
-0.258910
-0.245481
-0.231928
-0.218307
-0.204672
-0.191079
-0.177581
-0.164233
-0.151090
-0.138204
-0.125626
-0.113408
-0.101598
-0.090245
-0.079393
-0.069088
-0.059369
-0.050276
-0.041847
-0.034114
-0.027109
-0.020861
-0.015394
-0.010730
-0.006888
-0.003883
-0.001729
-0.000433
-0.000000
-0.000000
-0.000489
-0.001956
-0.004393
-0.007792
-0.012138
-0.017414
-0.023598
-0.030667
-0.038591
-0.047338
-0.056874
-0.067160
-0.078154
-0.089812
-0.102087
-0.114931
-0.128290
-0.142112
-0.156340
-0.170918
-0.185786
-0.200885
-0.216154
-0.231531
-0.246955
-0.262364
-0.277695
-0.292887
-0.307878
-0.322608
-0.337018
-0.351050
-0.364648
8076
0.148504
0.149272
0.150378
0.151818
0.153587
0.155681
0.158091
0.160811
0.163833
0.167148
0.170747
0.174620
0.178758
0.183152
0.187790
0.192663
0.197761
0.203075
0.208595
0.214311
0.220214
0.226297
0.232549
0.238801
0.653335
0.643930
0.634525
0.625137
0.615768
0.606417
0.597086
0.587776
0.578486
0.569218
0.559973
0.550752
0.541555
0.532384
0.523239
0.514122
0.505034
0.495976
0.486950
0.477956
0.468996
0.460072
0.451185
0.442337
0.433530
0.424765
0.416045
0.407372
0.398747
0.390174
0.381654
0.373191
0.364786
0.356444
0.348166
0.339958
0.331821
0.323759
0.315777
0.307879
0.300069
0.292352
0.284732
0.277216
0.269808
0.262514
0.255340
0.248294
0.241382
0.234610
0.227987
0.221521
0.215220
0.209092
0.203147
0.197394
0.191843
0.186504
0.181386
0.176501
0.171858
0.167470
0.163345
0.159495
0.155931
0.152662
0.149698
0.147047
0.144720
0.142722
0.141062
0.139745
0.138775
0.138156
0.137890
0.137978
0.138421
0.139216
0.140360
0.141850
0.143679
0.145843
0.148333
0.151141
0.154259
0.157677
0.161385
0.165374
0.169632
0.174148
0.178914
0.183916
0.189146
0.194593
0.200246
0.206096
0.212134
0.218349
0.224734
0.231119
0.649772
0.640323
0.630875
0.621443
0.612028
0.602631
0.593253
0.583893
0.574554
0.565235
0.555938
0.546663
0.537412
0.528184
0.518982
0.509806
0.500658
0.491538
0.482448
0.473390
0.464363
0.455371
0.446414
0.437494
0.428614
0.419773
0.410976
0.402223
0.393516
0.384859
0.376253
0.367701
0.359206
0.350771
0.342398
0.334092
0.325854
0.317690
0.309603
0.301597
0.293676
0.285846
0.278110
0.270475
0.262946
0.255529
0.248230
0.241056
0.234013
0.227109
0.220352
0.213750
0.207312
0.201046
0.194963
0.189071
0.183381
0.177904
0.172650
0.167630
0.162856
0.158339
0.154091
0.150123
0.146446
0.143071
0.140009
0.137269
0.134861
0.132794
0.131075
0.129711
0.128706
0.128065
0.127789
0.127881
0.128340
0.129163
0.130349
0.131891
0.133785
0.136023
0.138598
0.141500
0.144720
0.148247
0.152071
0.156181
0.10.080724
0.085931
0.090792
0.095287
0.099399
0.103110
0.106407
0.109275
0.111702
0.113680
0.115201
0.116257
0.116845
0.116963
0.116610
0.115787
0.114498
0.112748
0.110544
0.107895
0.104811
0.101306
0.097392
0.093086
0.088406
0.083369
0.077997
0.072311
0.066333
0.060089
0.053602
0.046900
0.040009
0.032956
0.025771
0.018483
0.011119
0.003711
-0.003711
-0.00.000000
0.000000
0.000000
0.000000
0.000000
0.000000
0.000000
0.000000
0.000000
0.000000
0.000000
0.000000
0.000000
0.000000
0.000000
0.000000
0.000000
0.000000
0.000000
0.000000
0.000000
0.000000
0.000000
0.000000
0.000000
0.000000
0.000000
0.000000
0.000000
0.000000
0.000000
0.000000
0.000000
0.000000
0.000000
0.000000
0.000000
0.000000
0.000000
0.000000
0.000000
0.000000
0.000000
0.000000
0.000000
0.000000
0.000000
0.000000
0.000000
0.000000
0.000000
0.000000
0.000000
0.000000
0.000000
0.000000
0.000000
0.000000
0.000000
0.000000
0.000000
0.000000
0.000000
0.000000
0.000000
0.000000
0.000000
0.000000
0.000000
0.000000
0.000000
0.000000
0.000000
0.000000
0.000000
0.000000
0.000000
0.000000
0.000000
0.000000
0.000000
0.000000
0.000000
0.000000
0.000000
0.000000
0.000000
0.000000
0.000000
0.000000
0.000000
0.000000
0.000000
0.000000
0.000000
0.000000
0.000000
0.000000
0.000000
0.000000
0.000000
0.000000
0.000000
0.000000
0.000000
0.000000
0.000000
0.000000
0.000000
0.000000
0.000000
0.000000
0.000000
0.000000
0.000000
0.000000
0.000000
0.000000
0.000000
0.000000
0.000000
0.000000
0.000000
0.000000
0.000000
0.000000
0.000000
0.000000
0.000000
0.000000
0.000000
0.000000
0.000000
0.000000
0.000000
0.000000
0.000000
0.000000
0.000000
0.000000
0.000000
0.000000
0.000000
0.000000
0.000000
0.000000
0.000000
0.000000
0.000000
0.000000
0.000000
0.000000
0.000000
0.000000
0.000000
0.000000
0.000000
0.000000
0.000000
0.000000
0.000000
0.000000
0.000000
0.000000
0.000000
0.000000
0.000000
0.000000
0.000000
0.000000
0.000000
0.000000
0.000000
0.000000
0.000000
0.000000
0.000000
0.000000
0.000000
0.000000
0.000000
0.000000
0.000000
0.000000
0.000000
0.000000
0.000000
0.000000
0.000000
0.000000
0.000000
0.000000
0.000000
0.000000
0.000000
0.000000
0.000000
0.000000
0.000000
0.000000
0.000000
0.000000
0.000000
0.000000
0.000000
0.000000
0.000000
0.000000
0.000000
0.000000
0.000000
0.000000
0.000000
0.000000
0.000000
0.000000
0.000000
0.000000
0.000000
0.000000
0.000000
0.000000
0.000000
0.000000
0.000000
0.000000
0.000000
0.000000
0.000000
0.000000
0.000000
0.000000
0.000000
0.000000
0.000000
0.000000
0.000000
0.000000
0.000000
0.000000
0.000000
0.000000
0.000000
0.000000
0.000000
0.000000
0.000000
0.000000
0.000000
0.000000
0.000000
0.000000
0.000000
0.000000
0.000000
0.000000
0.000000
0.000000
0.000000
0.000000
0.000000
0.000000
0.000000
0.000000
0.000000
0.000000
0.000000
0.000000
0.000000
0.000000
0.000000
0.000000
0.000000
0.000000
0.000000
0.000000
0.000000
0.000000

0.579116
0.569573
0.560045
0.550533
0.541038
0.531561
0.522102
0.512661
0.503240
0.493840
0.484462
0.475106
0.465773
0.456466
0.447184
0.437928
0.428702
0.419505
0.410339
0.401205
0.392106
0.383044
0.374019
0.365034
0.356091
0.347193
0.338341
0.329539
0.320789
0.312094
0.303457
0.294882
0.286372
0.277932
0.269564
0.261275
0.253069
0.244950
0.236924
0.228998
0.221178
0-0.377755
-0.390321
-0.402294
-0.413626
-0.424271
-0.434187
-0.443333
-0.451673
-0.459173
-0.465803
-0.471536
-0.476350
-0.480224
-0.483143
-0.485096
-0.486074
-0.486074
-0.485096
-0.483143
-0.480224
-0.476350
-0.471536
-0.465803
-0.459173
-0.451673
-0.443333
-0.434187
-0.424271
-0.413626
-0.402294
-0.390321
-0.377755
-0.364648
-0.351050
-0.337018
-0.322608
-0.307878
-0.292887
-0.277695
-0.262364
-0.246955
-0.231531
-0.216154
-0.200885
-0.185786
-0.170918
-0.156340
-0.142112
-0.128290
-0.114931
-0.102087
-0.089812
-0.078154
-0.067160
-0.056874
-0.047338
-0.038591
-0.030667
-0.023598
-0.017414
-0.012138
-0.007792
-0.004393
-0.001956
-0.000489
-0.000000
-0.000000
-0.000544
-0.002175
-0.004885
-0.008664
-0.013497
-0.019364
-0.026241
-0.034101
-0.042912
-0.052639
-0.063243
-0.074680
-0.086905
-0.099869
-0.113519
-0.127801
-0.142656
-0.158025
-0.173847
-0.190057
-0.206590
-0.223380
-0.240359
-0.257458
-0.274609
-0.291743
-0.308791
-0.325684
-0.342354
-0.358734
-0.374757
-0.390361
-0.405481
-0.420056
-0.434029
-0.447343
-0.459943
-0.471781
-0.482807
-0.492977
-0.502251
-0.510591
-0.517963
-0.524339
-0.529691
-0.533999
-0.537245
-0.539417
-0.540505
-0.540505
-0.539417
-0.537245
-0.533999
-0.529691
-0.524339
-0.517963
-0.510591
-0.502251
-0.492977
-0.482807
-0.471781
-0.459943
-0.447343
-0.434029
-0.420056
-0.405481
-0.390361
-0.374757
-0.358734
-0.342354
-0.325684
-0.308791
-0.291743
-0.274609
-0.257458
-0.240359
-0.223380
-0.206590
-0.190057
-0.173847
-0.158025
-0.142656
-0.127801
-0.113519
-0.099869
-0.086905
-0.074680
-0.063243
-0.052639
-0.042912
-0.034101
-0.026241
-0.019364
-0.013497
-0.008664
-0.004885
-0.002175
-0.000544
-0.000000
-0.000000
-0.000597
-0.002385
-0.005357
-0.009502
-0.014802
-0.021236
-0.028778
-0.037398
-0.047061
-0.057728
-0.069357
-0.081900
-0.095307
-0.109524
-0.124494
-0.140156
-0.156447
-0.173303
-0.190654
-0.208431
-0.226562
-0.244975
-0.263596
-0.282348
-0.301157
-0.319948
-0.338644
-0.357170
-0.375451
-0.393415
-0.410988
-0.428099
-0.444681
-0.460666
-0.475989
-0.490590
-0.504409
-0.517391
-0.529483
-0.540636
-0.550807
-0.559953
-0.568038
-0.575030
-0.580899
-0.585624
-0.589184
-0.591566
-0.592759
-0.592759
-0.591566
-0.589184
-0.585624
-0.580899
-0.575030
-0.568038
-0.559953
-0.550807
-0.540636
-0.529483
-0.517391
-0.504409
-0.490590
-0.475989
-0.460666
-0.444681
-0.428099
-0.410988
-0.393415
-0.375451
-0.357170
-0.338644
-0.319948
-0.301157
-0.282348
-0.263596
-0.244975
-0.226562
-0.208431
-0.190654
-0.173303
-0.156447
-0.140156
-0.124494
-0.109524
-0.095307
-0.081900
-0.069357
-0.057728
-0.047061
-0.037398
-0.028778
-0.021236
-0.014802
-0.009502
-0.005357
-0.002385
-0.000597
-0.000000
-0.000000
-0.000647
-0.002586
-0.005808
-0.010301
-0.016047
-0.023022
-0.031199
-0.040544
-0.051020
-0.062585
-0.075192
1
-0.162825
-0.156964
-0.150471
-0.143373
-0.135696
-0.127474
-0.118738
-0.109524
-0.099869
-0.089812
-0.079393
-0.068655
-0.057640
-0.046393
-0.034959
-0.023385
-0.011716
0.000000
0.000000
0.013317
0.026581
0.039737
0.052734
0.065518
0.078039
0.090245
0.102087
0.113519
0.124494
0.134967
0.144897
0.154243
0.162969
0.171038
0.178418
0.185080
0.190997
0.196144
0.200502
0.204053
0.206782
0.208678
0.209734
0.209945
0.209311
0.207834
0.205521
0.202379
0.198423
0.193668
0.188133
0.181841
0.174816
0.167087
0.158686
0.149645
0.140003
0.129796
0.119066
0.107858
0.096215
0.084184
0.071814
0.059156
0.046259
0.033176
0.019959
0.006662
-0.006662
-0.019959
-0.033176
-0.046259
-0.059156
-0.071814
-0.084184
-0.096215
-0.107858
-0.119066
-0.129796
-0.140003
-0.149645
-0.158686
-0.167087
-0.174816
-0.181841
-0.188133
-0.193668
-0.198423
-0.202379
-0.205521
-0.207834
-0.209311
-0.209945
-0.209734
-0.208678
-0.206782
-0.204053
-0.200502
-0.196144
-0.190997
-0.185080
-0.178418
-0.171038
-0.162969
-0.154243
-0.144897
-0.134967
-0.124494
-0.113519
-0.102087
-0.090245
-0.078039
-0.065518
-0.052734
-0.039737
-0.026581
-0.013317
0.000000
0.000000
0.014993
0.029925
0.044737
0.059368
0.073761
0.087856
0.101598
0.114931
0.127801
0.140156
0.151947
0.163126
0.173648
0.183471
0.192555
0.200864
0.208364
0.215025
0.220821
0.225727
0.229724
0.232796
0.234931
0.236120
0.236358
0.235644