# vtk DataFile Version 3.0
vtk output
ASCII
DATASET RECTILINEAR_GRID
DIMENSIONS 10 10 1
X_COORDINATES 10 float
0.000000
0.111111
0.222222
0.333333
0.444444
0.555556
0.666667
0.777778
0.888889
1.000000
Y_COORDINATES 10 float
0.000000
0.111111
0.222222
0.333333
0.444444
0.555556
0.666667
0.777778
0.888889
1.000000
Z_COORDINATES 1 float
0
POINT_DATA 100
SCALARS phi float 1
LOOKUP_TABLE default

SCALARS u float 1
LOOKUP_TABLE default
64744
0.489134
0.426192
0.380511
0.355426
0.350596
0.365328
0.380059
0.690300
0.597940
0.505579
0.419952
0.344569
0.284791
0.247717
0.239880
0.262946
0.286013
***End for 0 ***
***Start for 1 ***
0.646912
0.546663
0.446414
0.350771
0.262946
0.189071
0.140009
0.129163
0.160565
0.191967
0.617072
0.510270
0.403468
0.298764
0.198055
0.106098
0.036339
0.018966
0.066951
0.114937
***End for 1 ***
***Start for 2 ***
0.601906
0.491300
0.380694
0.270354
0.160565
0.052225
-0.049846
-0.087887
-0.000412
0.087063
0.601906
0.491300
0.380694
0.270354
0.160565
0.052225
-0.049846
-0.087887
-0.000412
0.087063
***End for 2 ***
***Start for 3 ***
0.617072
0.510270
0.403468
0.298764
0.198055
0.106098
0.036339
0.018966
0.066951
0.114937
0.646912
0.546663
0.446414
0.350771
0.262946
0.189071
0.140009
0.129163
0.160565
0.191967
***End for 3 ***
***Start for 4 ***
0.690300
0.597940
0.505579
0.419952
0.344569
0.284791
0.247717
0.239880
0.262946
0.286013
0.733688
0.649216
0.564744
0.489134
0.426192
0.380511
0.355426
0.350596
0.365328
0.380059
***End for 4 ***
